12
Lattice="3.2516 0.0 0.0 0.0 5.6318 0.0 0.0 0.0 28.735665450000003" Properties=species:S:1:pos:R:3:atom_types:I:1:forces:R:3 il_dist=-3.127112650000001 lateral_dist_x=1.62581712 lateral_dist_y=2.8158820799999997 cbm=0.00990000000000002 vbm=-0.8852000000000002 efermi=3.1943 bandgap=0.8951000000000002 bandgap_rel=-0.27139999999999964 lj_energy=0 energy=2.673559826096607 pbc="T T F"
Mo      -0.13547315       0.70398090      11.56355632        0      -0.08861821      -0.13404266      -0.49444396
S        1.49030973       1.64260826      13.12711265        1      -0.65799415      -1.19162687      -3.30906865
S        1.49030973       1.64260826      10.00000000        2      -0.02482837       0.01350138      -0.05733534
Mo       1.49034398       3.51986297      11.56355632        0      -0.08855908      -0.13410051      -0.49444602
S        3.11612685       4.45849034      13.12711265        1      -0.65795635      -1.19153817      -3.30902031
S        3.11612685       4.45849034      10.00000000        2      -0.02483120       0.01357131      -0.05738008
W        0.13547315       1.17329354      17.05638905        3       0.15735408       0.22543792       0.54444755
Se       1.76127639       2.11192493      18.73566545        4      -0.03277000       0.01531683       0.10335680
Se       1.76127639       2.11192493      15.37711265        5       0.64682888       1.07256962       3.21292816
W        1.76126991       3.98918771      17.05638905        3       0.15733840       0.22506640       0.54440487
Se       3.38707315       4.92781910      18.73566545        4      -0.03275997       0.01421306       0.10346633
Se       3.38707315       4.92781910      15.37711265        5       0.64679597       1.07163194       3.21309065
12
Lattice="3.2516 0.0 0.0 0.0 5.6318 0.0 0.0 0.0 28.735665450000003" Properties=species:S:1:pos:R:3:atom_types:I:1:forces:R:3 il_dist=-3.127112650000001 lateral_dist_x=1.62581712 lateral_dist_y=2.8158820799999997 cbm=0.05069999999999997 vbm=-1.1598 efermi=2.9591 bandgap=1.2105 bandgap_rel=0.04400000000000004 lj_energy=0 energy=0.4027747405671107 pbc="T T F"
Mo      -0.13547315       0.23466423      11.56355632        0       0.00917472      -0.09112015      -0.40105276
S        1.49030973       1.17329159      13.12711265        1      -0.02592932      -0.53479820      -1.09883010
S        1.49030973       1.17329159      10.00000000        2      -0.01918763       0.02658572       0.03293969
Mo       1.49034398       3.05054631      11.56355632        0       0.00918604      -0.09107027      -0.40111343
S        3.11612685       3.98917367      13.12711265        1      -0.02592340      -0.53464650      -1.09880105
S        3.11612685       3.98917367      10.00000000        2      -0.01919560       0.02663534       0.03288904
W        0.13547315       1.64261021      17.05638905        3       0.02178393       0.06810595       0.14109957
Se       1.76127639       2.58124159      18.73566545        4      -0.02093624       0.02621934       0.04095716
Se       1.76127639       2.58124159      15.37711265        5       0.03509016       0.50532282       1.28473963
W        1.76126991       4.45850438      17.05638905        3       0.02178419       0.06779511       0.14114714
Se       3.38707315       5.39713577      18.73566545        4      -0.02092441       0.02584730       0.04127058
Se       3.38707315       5.39713577      15.37711265        5       0.03507756       0.50512356       1.28475454
12
Lattice="3.2516 0.0 0.0 0.0 5.6318 0.0 0.0 0.0 28.735665450000003" Properties=species:S:1:pos:R:3:atom_types:I:1:forces:R:3 il_dist=-3.127112650000001 lateral_dist_x=1.62581712 lateral_dist_y=2.81588208 cbm=0.08889999999999976 vbm=-1.3255000000000001 efermi=3.0661 bandgap=1.4143999999999999 bandgap_rel=0.2479 lj_energy=0 energy=0.3394844631147862 pbc="T T F"
Mo      -0.13547315      -1.17328577      11.56355632        0      -0.00648535       0.05662161      -0.22075852
S        1.49030973      -0.23465841      13.12711265        1      -0.01220631       0.56354776      -1.17819620
S        1.49030973      -0.23465841      10.00000000        2       0.01688778       0.02042330      -0.01214949
Mo       1.49034398       1.64259631      11.56355632        0      -0.00649718       0.05674733      -0.22071687
S        3.11612685       2.58122367      13.12711265        1      -0.01222662       0.56374676      -1.17821677
S        3.11612685       2.58122367      10.00000000        2       0.01688341       0.02044567      -0.01217057
W        0.13547315       3.05056021      17.05638905        3      -0.03347782      -0.15256001       0.28438818
Se       1.76127639       3.98919159      18.73566545        4       0.02434295       0.03158549       0.00220112
Se       1.76127639       3.98919159      15.37711265        5       0.01095984      -0.51871209       1.12437144
W        1.76126991       5.86645438      17.05638905        3      -0.03348348      -0.15291507       0.28437249
Se       3.38707315       6.80508577      18.73566545        4       0.02435555       0.03072237       0.00239601
Se       3.38707315       6.80508577      15.37711265        5       0.01094673      -0.51965337       1.12447891
12
Lattice="3.2516 0.0 0.0 0.0 5.6318 0.0 0.0 0.0 28.735665450000003" Properties=species:S:1:pos:R:3:atom_types:I:1:forces:R:3 il_dist=-3.127112650000001 lateral_dist_x=1.62581712 lateral_dist_y=2.81588207 cbm=0.038599999999999746 vbm=-0.8862999999999999 efermi=3.1951 bandgap=0.9248999999999996 bandgap_rel=-0.24160000000000026 lj_energy=0 energy=2.6735075802389474 pbc="T T F"
Mo      -0.13547315      -1.64260243      11.56355632        0      -0.07280207       0.14320993      -0.49338236
S        1.49030973      -0.70397507      13.12711265        1      -0.70149233       1.16415823      -3.30854826
S        1.49030973      -0.70397507      10.00000000        2       0.02307539       0.01490957      -0.05692988
Mo       1.49034398       1.17327964      11.56355632        0      -0.07277893       0.14335828      -0.49337336
S        3.11612685       2.11190700      13.12711265        1      -0.70146328       1.16433769      -3.30858605
S        3.11612685       2.11190700      10.00000000        2       0.02307539       0.01497256      -0.05695353
W        0.13547315       3.51987687      17.05638905        3       0.11549550      -0.24934661       0.54316277
Se       1.76127639       4.45850826      18.73566545        4       0.03059844       0.02273909       0.10397284
Se       1.76127639       4.45850826      15.37711265        5       0.60511710      -1.09462532       3.21161818
W        1.76126991       6.33577105      17.05638905        3       0.11547441      -0.24971891       0.54314066
Se       3.38707315       7.27440243      18.73566545        4       0.03060975       0.02156076       0.10406309
Se       3.38707315       7.27440243      15.37711265        5       0.60509113      -1.09555503       3.21181616
12
Lattice="3.2516 0.0 0.0 0.0 5.6318 0.0 0.0 0.0 28.735665450000003" Properties=species:S:1:pos:R:3:atom_types:I:1:forces:R:3 il_dist=-3.127112650000001 lateral_dist_x=1.6258171200000002 lateral_dist_y=2.81588207 cbm=0.0034000000000000696 vbm=-1.124 efermi=3.1294 bandgap=1.1274000000000002 bandgap_rel=-0.03909999999999969 lj_energy=0 energy=1.4427523345475493 pbc="T T F"
Mo      -0.40643981      -0.23465243      11.56355632        0       0.14688892       0.08444634      -0.45904733
S        1.21934306       0.70397493      13.12711265        1       1.14364186       0.65872923      -2.11932074
S        1.21934306       0.70397493      10.00000000        2      -0.03342177      -0.01968514       0.01586499
Mo       1.21937731       2.58122964      11.56355632        0       0.14692209       0.08444660      -0.45907613
S        2.84516018       3.51985700      13.12711265        1       1.14366062       0.65881407      -2.11930351
S        2.84516018       3.51985700      10.00000000        2      -0.03343231      -0.01966611       0.01583465
W        0.40643982       2.11192687      17.05638905        3      -0.17183659      -0.09871905       0.31212190
Se       2.03224306       3.05055826      18.73566545        4      -0.03307030      -0.01855051       0.06003372
Se       2.03224306       3.05055826      15.37711265        5      -1.05224171      -0.60548220       2.19020580
W        2.03223657       4.92782105      17.05638905        3      -0.17183274      -0.09904172       0.31214272
Se       3.65803981       5.86645243      18.73566545        4      -0.03305847      -0.01919380       0.06026409
Se       3.65803981       5.86645243      15.37711265        5      -1.05222011      -0.60609772       2.19027959
12
Lattice="3.2516 0.0 0.0 0.0 5.6318 0.0 0.0 0.0 28.735665450000003" Properties=species:S:1:pos:R:3:atom_types:I:1:forces:R:3 il_dist=-3.127112650000001 lateral_dist_x=1.6258171200000002 lateral_dist_y=2.8158820799999997 cbm=0.012500000000000178 vbm=-1.142 efermi=3.1712 bandgap=1.1545 bandgap_rel=-0.011999999999999789 lj_energy=0 energy=1.4113293087466445 pbc="T T F"
Mo      -0.40643981      -0.70396910      11.56355632        0       0.12668751      -0.07280259      -0.34142682
S        1.21934306       0.23465826      13.12711265        1       1.13804662      -0.65562668      -2.18451775
S        1.21934306       0.23465826      10.00000000        2       0.02616792      -0.01523250      -0.01542893
Mo       1.21937731       2.11191297      11.56355632        0       0.12669034      -0.07273445      -0.34159599
S        2.84516018       3.05054034      13.12711265        1       1.13803042      -0.65534977      -2.18438071
S        2.84516018       3.05054034      10.00000000        2       0.02616380      -0.01506821      -0.01550864
W        0.40643982       2.58124354      17.05638905        3      -0.26435877       0.15334085       0.41382008
Se       2.03224306       3.51987493      18.73566545        4       0.04274330      -0.02507391       0.02793401
Se       2.03224306       3.51987493      15.37711265        5      -1.06927090       0.61607154       2.09948134
W        2.03223657       5.39713771      17.05638905        3      -0.26435440       0.15297190       0.41383319
Se       3.65803981       6.33576910      18.73566545        4       0.04275410      -0.02587584       0.02812838
Se       3.65803981       6.33576910      15.37711265        5      -1.06929995       0.61537991       2.09966157
12
Lattice="3.2516 0.0 0.0 0.0 5.6318 0.0 0.0 0.0 28.735665450000003" Properties=species:S:1:pos:R:3:atom_types:I:1:forces:R:3 il_dist=-3.127112650000001 lateral_dist_x=1.6258171200000002 lateral_dist_y=2.81588208 cbm=0.06309999999999993 vbm=-1.2402000000000002 efermi=3.015 bandgap=1.3033000000000001 bandgap_rel=0.13680000000000025 lj_energy=0 energy=0.3561732048437989 pbc="T T F"
Mo      -0.40643981      -1.17328577      11.56355632        0      -0.01596681      -0.00961875      -0.29714445
S        1.21934306      -0.23465841      13.12711265        1       0.01542585       0.00853889      -1.12384256
S        1.21934306      -0.23465841      10.00000000        2       0.03666187       0.02084753       0.01027850
Mo       1.21937731       1.64259631      11.56355632        0      -0.01597735      -0.00951051      -0.29710408
S        2.84516018       2.58122367      13.12711265        1       0.01539731       0.00869521      -1.12382431
S        2.84516018       2.58122367      10.00000000        2       0.03665699       0.02085088       0.01026924
W        0.40643982       3.05056021      17.05638905        3      -0.05665709      -0.03264273       0.19914325
Se       2.03224306       3.98919159      18.73566545        4       0.04617881       0.02756248       0.02103317
Se       2.03224306       3.98919159      15.37711265        5      -0.02563158      -0.01415289       1.19030866
W        2.03223657       5.86645438      17.05638905        3      -0.05665683      -0.03298880       0.19915739
Se       3.65803981       6.80508577      18.73566545        4       0.04618910       0.02699658       0.02127974
Se       3.65803981       6.80508577      15.37711265        5      -0.02561976      -0.01457738       1.19044545
12
Lattice="3.2516 0.0 0.0 0.0 5.6318 0.0 0.0 0.0 28.735665450000003" Properties=species:S:1:pos:R:3:atom_types:I:1:forces:R:3 il_dist=-3.127112650000001 lateral_dist_x=1.6258171200000002 lateral_dist_y=2.81588207 cbm=0.0034000000000000696 vbm=-1.1240999999999999 efermi=3.1296 bandgap=1.1275 bandgap_rel=-0.038999999999999924 lj_energy=0 energy=1.4428294788194762 pbc="T T F"
Mo      -0.40643981      -1.64260243      11.56355632        0      -0.14685061       0.08503409      -0.45868969
S        1.21934306      -0.70397507      13.12711265        1      -1.14371205       0.65924885      -2.11930326
S        1.21934306      -0.70397507      10.00000000        2       0.03343643      -0.01915806       0.01602234
Mo       1.21937731       1.17327964      11.56355632        0      -0.14684496       0.08520302      -0.45874291
S        2.84516018       2.11190700      13.12711265        1      -1.14372542       0.65962269      -2.11931457
S        2.84516018       2.11190700      10.00000000        2       0.03343720      -0.01896754       0.01596038
W        0.40643982       3.51987687      17.05638905        3       0.17185022      -0.09819223       0.31250499
Se       2.03224306       4.45850826      18.73566545        4       0.03308264      -0.02012068       0.06049086
Se       2.03224306       4.45850826      15.37711265        5       1.05219363      -0.60677032       2.18883591
W        2.03223657       6.33577105      17.05638905        3       0.17185742      -0.09846811       0.31252042
Se       3.65803981       7.27440243      18.73566545        4       0.03309138      -0.02051997       0.06074823
Se       3.65803981       7.27440243      15.37711265        5       1.05218412      -0.60691147       2.18896678
12
Lattice="3.2516 0.0 0.0 0.0 5.6318 0.0 0.0 0.0 28.735665450000003" Properties=species:S:1:pos:R:3:atom_types:I:1:forces:R:3 il_dist=-3.127112650000001 lateral_dist_x=1.6258171300000002 lateral_dist_y=2.8158820799999997 cbm=0.07459999999999978 vbm=-0.012600000000000389 efermi=3.0828 bandgap=0.08720000000000017 bandgap_rel=-1.0792999999999997 lj_energy=0 energy=0.3395031029176607 pbc="T T F"
Mo      -0.67740648       0.70398090      11.56355632        0      -0.05177893      -0.02345926      -0.21782489
S        0.94837639       1.64260826      13.12711265        1      -0.49309671      -0.27258913      -1.18205208
S        0.94837639       1.64260826      10.00000000        2      -0.00864251      -0.02550997      -0.01100946
Mo       0.94841064       3.51986297      11.56355632        0      -0.05177868      -0.02338033      -0.21782592
S        2.57419352       4.45849034      13.12711265        1      -0.49313244      -0.27248397      -1.18206674
S        2.57419352       4.45849034      10.00000000        2      -0.00864713      -0.02549917      -0.01102078
W        0.67740648       1.17329354      17.05638905        3       0.11655968       0.10477734       0.28389427
Se       2.30320973       2.11192493      18.73566545        4      -0.01638924      -0.03471735       0.00173010
Se       2.30320973       2.11192493      15.37711265        5       0.45334874       0.25224168       1.12514791
W        2.30320324       3.98918771      17.05638905        3       0.11656430       0.10444901       0.28385725
Se       3.92900648       4.92781910      18.73566545        4      -0.01637947      -0.03545551       0.00193990
Se       3.92900648       4.92781910      15.37711265        5       0.45337265       0.25162667       1.12523044
12
Lattice="3.2516 0.0 0.0 0.0 5.6318 0.0 0.0 0.0 28.735665450000003" Properties=species:S:1:pos:R:3:atom_types:I:1:forces:R:3 il_dist=-3.127112650000001 lateral_dist_x=1.6258171300000002 lateral_dist_y=2.8158820799999997 cbm=0.0889000000000002 vbm=-1.3256 efermi=3.0662 bandgap=1.4145 bandgap_rel=0.24800000000000022 lj_energy=0 energy=0.3394983409270935 pbc="T T F"
Mo      -0.67740648       0.23466423      11.56355632        0       0.00650746       0.05723636      -0.22041810
S        0.94837639       1.17329159      13.12711265        1       0.01220040       0.56407972      -1.17806250
S        0.94837639       1.17329159      10.00000000        2      -0.01688135       0.02094369      -0.01201502
Mo       0.94841064       3.05054631      11.56355632        0       0.00650438       0.05731015      -0.22043559
S        2.57419352       3.98917367      13.12711265        1       0.01219783       0.56423887      -1.17806353
S        2.57419352       3.98917367      10.00000000        2      -0.01688649       0.02097609      -0.01204305
W        0.67740648       1.64261021      17.05638905        3       0.03347525      -0.15201416       0.28464657
Se       2.30320973       2.58124159      18.73566545        4      -0.02435452       0.03093577       0.00164885
Se       2.30320973       2.58124159      15.37711265        5      -0.01095701      -0.52017325       1.12407499
W        2.30320324       4.45850438      17.05638905        3       0.03348039      -0.15237437       0.28465300
Se       3.92900648       5.39713577      18.73566545        4      -0.02434269       0.02990604       0.00179617
Se       3.92900648       5.39713577      15.37711265        5      -0.01094390      -0.52106439       1.12421769
12
Lattice="3.2516 0.0 0.0 0.0 5.6318 0.0 0.0 0.0 28.735665450000003" Properties=species:S:1:pos:R:3:atom_types:I:1:forces:R:3 il_dist=-3.127112650000001 lateral_dist_x=1.6258171300000002 lateral_dist_y=2.81588207 cbm=0.03849999999999998 vbm=-0.8863999999999996 efermi=3.1952 bandgap=0.9248999999999996 bandgap_rel=-0.24160000000000026 lj_energy=0 energy=2.673455742555234 pbc="T T F"
Mo      -0.67740648      -0.23465243      11.56355632        0       0.07284732       0.14267848      -0.49340215
S        0.94837639       0.70397493      13.12711265        1       0.70147099       1.16361393      -3.30858065
S        0.94837639       0.70397493      10.00000000        2      -0.02307822       0.01438147      -0.05691471
Mo       0.94841064       2.58122964      11.56355632        0       0.07288949       0.14270985      -0.49340010
S        2.57419352       3.51985700      13.12711265        1       0.70150441       1.16376511      -3.30858528
S        2.57419352       3.51985700      10.00000000        2      -0.02308336       0.01443700      -0.05693682
W        0.67740648       2.11192687      17.05638905        3      -0.11550475      -0.24989092       0.54318231
Se       2.30320973       3.05055826      18.73566545        4      -0.03061361       0.02337081       0.10396796
Se       2.30320973       3.05055826      15.37711265        5      -0.60518086      -1.09315979       3.21170097
W        2.30320324       4.92782105      17.05638905        3      -0.11549730      -0.25025344       0.54315943
Se       3.92900648       5.86645243      18.73566545        4      -0.03060204       0.02241333       0.10405177
Se       3.92900648       5.86645243      15.37711265        5      -0.60515284      -1.09406559       3.21175728
12
Lattice="3.2516 0.0 0.0 0.0 5.6318 0.0 0.0 0.0 28.735665450000003" Properties=species:S:1:pos:R:3:atom_types:I:1:forces:R:3 il_dist=-3.127112650000001 lateral_dist_x=1.6258171300000002 lateral_dist_y=2.8158820799999997 cbm=0.009999999999999787 vbm=-0.8852000000000002 efermi=3.1943 bandgap=0.8952 bandgap_rel=-0.2712999999999999 lj_energy=0 energy=2.6735351997958787 pbc="T T F"
Mo      -0.67740648      -0.70396910      11.56355632        0       0.08860124      -0.13332713      -0.49409352
S        0.94837639       0.23465826      13.12711265        1       0.65799029      -1.19110236      -3.30894626
S        0.94837639       0.23465826      10.00000000        2       0.02482632       0.01404337      -0.05711860
Mo       0.94841064       2.11191297      11.56355632        0       0.08863801      -0.13357704      -0.49417605
S        2.57419352       3.05054034      13.12711265        1       0.65801832      -1.19097355      -3.30883313
S        2.57419352       3.05054034      10.00000000        2       0.02482143       0.01409093      -0.05721167
W        0.67740648       2.58124354      17.05638905        3      -0.15737697       0.22593775       0.54446529
Se       2.30320973       3.51987493      18.73566545        4       0.03276202       0.01443083       0.10316989
Se       2.30320973       3.51987493      15.37711265        5      -0.64685742       1.07104007       3.21243708
W        2.30320324       5.39713771      17.05638905        3      -0.15737388       0.22562587       0.54444601
Se       3.92900648       6.33576910      18.73566545        4       0.03277437       0.01365410       0.10332775
Se       3.92900648       6.33576910      15.37711265        5      -0.64682322       1.07015741       3.21253349
12
Lattice="3.2516 0.0 0.0 0.0 5.6318 0.0 0.0 0.0 28.735665450000003" Properties=species:S:1:pos:R:3:atom_types:I:1:forces:R:3 il_dist=-3.127112650000001 lateral_dist_x=1.6258171300000002 lateral_dist_y=2.81588208 cbm=0.05069999999999997 vbm=-1.1599000000000002 efermi=2.9592 bandgap=1.2106000000000001 bandgap_rel=0.04410000000000025 lj_energy=0 energy=0.4027603185350017 pbc="T T F"
Mo      -0.67740648      -1.17328577      11.56355632        0      -0.00916907      -0.09173619      -0.40099079
S        0.94837639      -0.23465841      13.12711265        1       0.02591929      -0.53532450      -1.09881210
S        0.94837639      -0.23465841      10.00000000        2       0.01920511       0.02604990       0.03291603
Mo       0.94841064       1.64259631      11.56355632        0      -0.00916675      -0.09165520      -0.40097357
S        2.57419352       2.58122367      13.12711265        1       0.02591003      -0.53515661      -1.09875631
S        2.57419352       2.58122367      10.00000000        2       0.01919791       0.02610698       0.03287335
W        0.67740648       3.05056021      17.05638905        3      -0.02179061       0.06757296       0.14117645
Se       2.30320973       3.98919159      18.73566545        4       0.02091850       0.02696933       0.04065737
Se       2.30320973       3.98919159      15.37711265        5      -0.03508990       0.50676443       1.28490855
W        2.30320324       5.86645438      17.05638905        3      -0.02178753       0.06724258       0.14119650
Se       3.92900648       6.80508577      18.73566545        4       0.02093187       0.02657389       0.04093042
Se       3.92900648       6.80508577      15.37711265        5      -0.03507910       0.50659268       1.28487461
12
Lattice="3.2516 0.0 0.0 0.0 5.6318 0.0 0.0 0.0 28.735665450000003" Properties=species:S:1:pos:R:3:atom_types:I:1:forces:R:3 il_dist=-3.127112650000001 lateral_dist_x=1.6258171300000002 lateral_dist_y=2.81588207 cbm=0.030199999999999783 vbm=-1.1144000000000003 efermi=2.9862 bandgap=1.1446 bandgap_rel=-0.02189999999999981 lj_energy=0 energy=0.4023648010661418 pbc="T T F"
Mo      -0.67740648      -1.64260243      11.56355632        0      -0.07368242       0.05441586      -0.39431441
S        0.94837639      -0.70397507      13.12711265        1      -0.47474957       0.24511406      -1.10693319
S        0.94837639      -0.70397507      10.00000000        2       0.01387496      -0.02875445       0.03534675
Mo       0.94841064       1.17327964      11.56355632        0      -0.07367445       0.05453104      -0.39430052
S        2.57419352       2.11190700      13.12711265        1      -0.47478479       0.24530098      -1.10693782
S        2.57419352       2.11190700      10.00000000        2       0.01386930      -0.02865906       0.03530202
W        0.67740648       3.51987687      17.05638905        3       0.07058938      -0.01386133       0.13775045
Se       2.30320973       4.45850826      18.73566545        4       0.01070633      -0.03253011       0.04197300
Se       2.30320973       4.45850826      15.37711265        5       0.45324975      -0.22359522       1.28603932
W        2.30320324       6.33577105      17.05638905        3       0.07059658      -0.01421177       0.13776434
Se       3.92900648       7.27440243      18.73566545        4       0.01072047      -0.03336803       0.04214964
Se       3.92900648       7.27440243      15.37711265        5       0.45328394      -0.22438172       1.28616042
12
Lattice="3.2516 0.0 0.0 0.0 5.6318 0.0 0.0 0.0 28.735665450000003" Properties=species:S:1:pos:R:3:atom_types:I:1:forces:R:3 il_dist=-3.127112650000001 lateral_dist_x=1.6258171200000002 lateral_dist_y=2.8158820799999997 cbm=0.07469999999999999 vbm=-0.012599999999999945 efermi=3.0827 bandgap=0.08729999999999993 bandgap_rel=-1.0792 lj_energy=0 energy=0.3394754833607294 pbc="T T F"
Mo      -0.94837315       0.70398090      11.56355632        0       0.05178845      -0.02347366      -0.21809743
S        0.67740973       1.64260826      13.12711265        1       0.49307691      -0.27261510      -1.18223360
S        0.67740973       1.64260826      10.00000000        2       0.00865099      -0.02553363      -0.01105677
Mo       0.67744398       3.51986297      11.56355632        0       0.05178870      -0.02335590      -0.21811157
S        2.30322685       4.45849034      13.12711265        1       0.49303474      -0.27245260      -1.18219709
S        2.30322685       4.45849034      10.00000000        2       0.00864431      -0.02547115      -0.01108557
W        0.94837315       1.17329354      17.05638905        3      -0.11656070       0.10478685       0.28409353
Se       2.57417639       2.11192493      18.73566545        4       0.01637896      -0.03473355       0.00182523
Se       2.57417639       2.11192493      15.37711265        5      -0.45333562       0.25220697       1.12535900
W        2.57416991       3.98918771      17.05638905        3      -0.11655762       0.10443975       0.28410664
Se       4.19997315       4.92781910      18.73566545        4       0.01639207      -0.03546580       0.00204351
Se       4.19997315       4.92781910      15.37711265        5      -0.45330169       0.25166780       1.12535411
12
Lattice="3.2516 0.0 0.0 0.0 5.6318 0.0 0.0 0.0 28.735665450000003" Properties=species:S:1:pos:R:3:atom_types:I:1:forces:R:3 il_dist=-3.127112650000001 lateral_dist_x=1.6258171200000002 lateral_dist_y=2.8158820799999997 cbm=0.0889000000000002 vbm=-1.3256 efermi=3.0662 bandgap=1.4145 bandgap_rel=0.24800000000000022 lj_energy=0 energy=0.33949847698022495 pbc="T T F"
Mo      -0.94837315       0.23466423      11.56355632        0      -0.00648612       0.05724664      -0.22077909
S        0.67740973       1.17329159      13.12711265        1      -0.01220811       0.56408024      -1.17819028
S        0.67740973       1.17329159      10.00000000        2       0.01688906       0.02093084      -0.01200885
Mo       0.67744398       3.05054631      11.56355632        0      -0.00649512       0.05730140      -0.22079683
S        2.30322685       3.98917367      13.12711265        1      -0.01222868       0.56426381      -1.17820494
S        2.30322685       3.98917367      10.00000000        2       0.01688701       0.02098920      -0.01204973
W        0.94837315       1.64261021      17.05638905        3      -0.03347396      -0.15204244       0.28487000
Se       2.57417639       2.58124159      18.73566545        4       0.02433806       0.03072803       0.00142773
Se       2.57417639       2.58124159      15.37711265        5       0.01095316      -0.52036685       1.12460721
W        2.57416991       4.45850438      17.05638905        3      -0.03347705      -0.15236152       0.28491937
Se       4.19997315       5.39713577      18.73566545        4       0.02435040       0.03011327       0.00165065
Se       4.19997315       5.39713577      15.37711265        5       0.01095136      -0.52088185       1.12455476
12
Lattice="3.2516 0.0 0.0 0.0 5.6318 0.0 0.0 0.0 28.735665450000003" Properties=species:S:1:pos:R:3:atom_types:I:1:forces:R:3 il_dist=-3.127112650000001 lateral_dist_x=1.6258171200000002 lateral_dist_y=2.81588207 cbm=0.03849999999999998 vbm=-0.8863999999999996 efermi=3.1952 bandgap=0.9248999999999996 bandgap_rel=-0.24160000000000026 lj_energy=0 energy=2.673492750040168 pbc="T T F"
Mo      -0.94837315      -0.23465243      11.56355632        0      -0.07281004       0.14262321      -0.49328440
S        0.67740973       0.70397493      13.12711265        1      -0.70148590       1.16362704      -3.30858014
S        0.67740973       0.70397493      10.00000000        2       0.02306948       0.01438275      -0.05694479
Mo       0.67744398       2.58122964      11.56355632        0      -0.07278330       0.14274173      -0.49326126
S        2.30322685       3.51985700      13.12711265        1      -0.70147690       1.16379468      -3.30860996
S        2.30322685       3.51985700      10.00000000        2       0.02307025       0.01443032      -0.05696253
W        0.94837315       2.11192687      17.05638905        3       0.11548161      -0.24986315       0.54313912
Se       2.57417639       3.05055826      18.73566545        4       0.03060718       0.02339678       0.10387822
Se       2.57417639       3.05055826      15.37711265        5       0.60510990      -1.09316004       3.21164801
W        2.57416991       4.92782105      17.05638905        3       0.11547621      -0.25029484       0.54314914
Se       4.19997315       5.86645243      18.73566545        4       0.03061695       0.02238454       0.10410859
Se       4.19997315       5.86645243      15.37711265        5       0.60512481      -1.09406302       3.21172025
12