27
Lattice="10.410356637852505 0.0 0.0 -4.858961088221192 8.509675364339946 0.0 0.0 0.0 18.35854941692988" Properties=species:S:1:pos:R:3:atom_types:I:1:forces:R:3 cbm=0.4396 vbm=-0.4367000000000001 efermi=1.473 bandgap=0.8763000000000001 energy=9.69991626398405 pbc="T T F"
W       -0.08778013       0.90987766       9.13689206        3       3.88219402      -1.89626597       1.92813248
Se       1.66839811       1.90670887      10.89731356        4      -0.25125231      -1.67276100       0.08096430
Se       1.78752903       1.86603873       7.36757179        5      -0.38507978      -0.12406601       2.59533632
W       -1.68672658       3.88230515       9.23708967        3       1.26342338      -2.31281014       0.71363874
Se      -0.06006463       4.63600873      10.83299005        4       2.30168523       1.27016738       0.01112799
Se       0.12930704       4.93540330       7.50531643        5      -0.29869097      -6.02137679      -3.59018535
W       -3.23186711       6.61042968       9.09045875        3      -1.17268735       0.20291378       1.47089649
Se      -1.60092859       7.49930236      10.96934282        4       0.60491347      -1.79332929      -0.54728450
Se      -1.61120257       7.75769366       7.50165198        5       0.93720721      -2.13059888      -0.05264257
W        3.44580931       0.75198587       9.42237111        3      -2.80802260       2.92632986      -4.59986374
Se       4.96630228       1.63065432      10.91398471        4       3.43861419       1.45632528       1.19381771
Se       5.21827247       1.70611379       7.54154551        5      -1.37577673       1.61482042       0.28591644
W        1.82241517       3.66583220       9.29077692        3      -0.76064004       1.85576030      -2.94261394
Se       3.50786544       4.52835106      10.95425093        4       0.63716153       1.27487148      -0.83229695
Se       3.49885112       4.65611633       7.40865523        5       0.82722956      -0.09356296       3.02676203
W        0.35499316       6.55322373       8.90702202        3      -1.76779437       5.40025638       7.84659290
Se       1.85578661       7.69717722      11.00746659        4       1.22899142      -1.18326538      -2.64866640
Se       1.89763416       7.64751669       7.35108491        5       1.73923636      -1.77770135      -0.52239443
W        6.91071642       0.85252076       8.97348382        3       0.85093847       0.98961478       5.36521995
Se       8.78673139       1.82799616      10.90243650        4      -1.15623563       0.45407147      -1.18142602
Se       8.88275652       1.91919609       7.68959536        5      -2.98918896       1.06349646      -3.03234056
W        5.32260298       3.61028566       9.37111884        3      -1.11985658       0.60319237      -2.72100696
Se       7.00881112       4.74408280      10.85295295        4       0.03577484      -0.14751653       0.18350683
Se       7.17429207       4.61056790       7.61381525        5      -2.16306806       0.49433623      -1.39120078
W        3.69787215       6.65346193       9.28795259        3      -1.43120509      -1.23235160      -0.49116889
Se       5.55842775       7.59098638      10.90288310        4      -0.74544637      -0.56375551      -1.21886693
Se       5.30681567       7.31832248       7.45091086        5       0.67757490       1.34320523       1.07004583
27
Lattice="10.700917259415268 0.0 0.0 -4.8493025716974385 9.285303616084482 0.0 0.0 0.0 18.35855785575639" Properties=species:S:1:pos:R:3:atom_types:I:1:forces:R:3 cbm=0.24060000000000004 vbm=-0.24819999999999998 efermi=0.5635 bandgap=0.4888 energy=11.322194479056634 pbc="T T F"
W        0.05352171       1.12331060       9.39818224        3       2.23950567      -2.93041868      -3.20386605
Se       1.95422077       2.03496989      10.94781845        4      -0.12144991       0.15978686      -1.45888841
Se       1.90236413       1.93504580       7.58362449        5      -0.10323545       0.11957172       1.36000816
W       -1.44353448       4.22359426       9.04101880        3      -1.35321222      -1.26342955       2.63503261
Se       0.36386329       5.24321618      10.90296770        4      -0.35000427      -0.87571054      -1.58601198
Se       0.29328432       5.10236856       7.53988128        5       0.72675573       0.13913499      -0.00039312
W       -3.25362138       7.07228865       9.13066573        3       1.01196564       0.99486446       0.78002770
Se      -1.47004707       8.29301291      10.83812763        4      -0.20937367      -1.51956208      -0.66088921
Se      -1.20296930       8.01360233       7.41073405        5      -2.24623862       1.22423797       0.80880426
W        3.61320538       0.89444687       9.26602056        3      -0.64001648       0.44784220      -1.50865237
Se       5.38261810       1.83442400      10.88709182        4       0.97451957       0.70022735      -0.80228086
Se       5.33464802       1.97149205       7.59326388        5       1.19936126      -0.05548595       1.75421638
W        2.09670241       4.04552350       9.13814460        3      -1.46157007      -0.17823530      -0.33402512
Se       3.77468864       4.88298478      10.70305637        4       1.33546055       1.34242387       0.68043397
Se       3.88634415       4.97952310       7.44417870        5       0.42437986       0.05971310       1.61260439
W        0.12471705       7.08080551       9.16923505        3       3.19405626       0.91205180       0.85961337
Se       2.25492618       8.37845973      10.81172847        4       0.15591710      -2.90189512      -0.25120886
Se       2.15712514       8.39085354       7.41173031        5       0.57440810      -1.15146084       2.31127930
W        7.28993996       0.90985940       9.30858667        3      -1.31713913       2.34704618      -1.96743488
Se       9.22169308       1.99002925      10.88195966        4      -2.39690681       1.81546520       0.90469150
Se       8.97656396       2.01127057       7.68791456        5       0.73522855       0.25277055       0.20492284
W        5.75688589       4.05400612       9.32420252        3      -1.85373298      -0.93315875      -1.61803353
Se       7.51036922       5.10681587      10.83213619        4       0.18706215      -0.00983036      -0.72302069
Se       7.29528614       5.11288329       7.53812205        5       0.87329550      -0.53381321       0.46437414
W        4.14426515       6.99986484       9.11901243        3      -2.55351065       0.77364237       0.18700790
Se       5.69306776       8.12674955      10.85353588        4       0.69871168      -0.00432331      -1.05596415
Se       5.76565315       8.06099027       7.54039172        5       0.27576316       1.06854507       0.60765272
27
Lattice="9.97402727494505 0.0 0.0 -4.548794775120539 7.98801891201254 0.0 0.0 0.0 18.358553667245754" Properties=species:S:1:pos:R:3:atom_types:I:1:forces:R:3 cbm=0.5101999999999998 vbm=-0.5208000000000002 efermi=2.3138 bandgap=1.031 energy=8.145642018309445 pbc="T T F"
W       -0.00985733       1.00589262       9.30031564        3       0.59390812      -1.56526087       0.68833342
Se       1.66956938       1.83793296      11.07101867        4      -0.93368891       1.09120061       0.07763035
Se       1.63000541       1.81903317       7.64947948        5       0.49434292      -1.04882703      -1.87067450
W       -1.57548538       3.56169422       9.44956499        3       2.63231676       1.26090601      -4.03394850
Se       0.25073807       4.49815464      10.86740190        4       0.02496773      -3.34223099       3.33982650
Se       0.24048577       4.53471344       7.28459964        5      -0.39713388      -0.59374460       2.41296618
W       -3.10623226       6.36498535       9.24881775        3       4.10851615      -3.14380662       0.63326682
Se      -1.34822717       7.14069936      10.97353951        4      -0.86674793       0.00742612       1.45652711
Se      -1.39969215       7.01327219       7.60736515        5       0.45652765       1.85101944       0.03871567
W        3.17318092       1.02158376       9.40904252        3       2.86621824      -1.60092001      -2.08359115
Se       4.95349991       2.10637492      11.07395303        4       0.18352380      -4.13255314       0.77698995
Se       4.98301704       1.77280455       7.66544590        5      -0.50073031      -2.15549539      -1.78198095
W        1.86646067       3.61925533       9.13689420        3      -0.50146410       1.54969052       2.19340785
Se       3.59623627       4.63003223      10.99747319        4      -0.79604388      -1.23713797      -0.83167474
Se       3.57951282       4.55469940       7.47834412        5      -0.15092401      -0.87582161       0.36858204
W        0.15237022       6.14183345       9.37360480        3       2.17744567       4.23500131      -4.54443692
Se       2.05461970       7.16312197      11.04830482        4      -0.92930724      -0.70608921      -0.56524803
Se       1.97385401       6.98264295       7.67287556        5      -0.81643375       0.69434775      -0.64578090
W        6.63479575       0.82489594       9.24951294        3      -0.42734640       2.96419475       1.36268673
Se       8.25157161       1.80028200      11.00402712        4       0.31026299      -1.35793456       1.09481918
Se       8.45233980       1.87716380       7.68324057        5      -1.86447891      -0.51053316      -1.43796221
W        5.06607177       3.48335223       9.22085357        3      -0.09080031       4.62908869       0.74357152
Se       6.78540855       4.43741880      10.87265721        4      -1.52231753       1.09668863       2.06532526
Se       6.79285017       4.47484833       7.75628136        5       0.62003670      -1.19088845      -1.78405197
W        3.75637925       6.34573448       9.25001662        3      -3.67860405      -2.50228064      -0.48885336
Se       5.33975110       7.03800778      10.77419262        4      -0.35621734       2.94671099       5.78072565
Se       5.35210792       6.93095455       7.58646557        5      -0.63582764       3.63724914      -2.96517126
27
Lattice="10.897176914917804 0.0 0.0 -5.305704673750499 8.701243206085058 0.0 0.0 0.0 18.35855022880043" Properties=species:S:1:pos:R:3:atom_types:I:1:forces:R:3 cbm=0.35139999999999993 vbm=-0.35849999999999993 efermi=0.9056 bandgap=0.7098999999999999 energy=8.458562728497782 pbc="T T F"
W       -0.01973152       0.82959772       9.18200922        3      -0.31970922       1.82379094      -1.61737610
Se       1.69436608       1.95505488      10.68567797        4       1.09650942       0.19000889      -0.56891185
Se       1.91552646       1.98589607       7.48686508        5      -0.28594858      -0.33712253       1.44928843
W       -1.78776033       3.98993703       9.26945361        3       1.05130326      -0.17357055      -1.41927388
Se       0.22842226       4.82317114      11.00529435        4      -1.03917871       0.29061308      -1.65756090
Se       0.20840851       4.69958408       7.64059918        5      -3.37598315       1.89137676      -2.05588006
W       -3.47902943       6.81381511       9.15153744        3       0.53447578      -0.59197336       0.23676183
Se      -1.58054180       7.86395208      10.91523027        4      -0.60857755      -1.12265034      -1.01519983
Se      -1.65680569       7.87164113       7.45699047        5       0.04518560      -1.26471999       1.46856065
W        3.75720167       0.96579826       9.20975343        3      -0.76060585       0.89122355      -0.99766465
Se       5.56071605       1.83682378      10.82812150        4      -0.03746894       0.32507820      -0.78660510
Se       5.42148827       1.97145513       7.39527649        5       0.34049890      -0.16383249       2.17193991
W        1.85336570       4.09777550       9.08434654        3       2.50787254      -3.03659727       3.31326546
Se       3.55058139       4.91681494      10.97198930        4       0.68897594      -0.75996487      -1.44496640
Se       3.61816132       4.94933321       7.42501924        5       0.58215149      -1.41031668       1.01009670
W        0.02550048       6.68499850       9.22783838        3       1.24353821       1.58692369      -0.18943091
Se       1.99376928       7.84354930      10.88181299        4      -0.52114744      -0.68121970      -1.92957153
Se       2.14148705       7.69705964       7.35325806        5      -1.47029974       0.40977959       1.74314238
W        7.30254369       0.96421164       9.05352714        3       0.00934133       0.49496667       0.27464858
Se       9.12910887       2.03561226      10.75668942        4      -0.18776818      -1.31461533      -0.27998285
Se       9.06921799       2.14330906       7.49837468        5       0.44352738      -1.15215195       1.08119053
W        5.39474442       3.82880157       9.28686948        3      -0.14163950       0.69411301      -1.76188804
Se       7.32273943       4.82602620      10.79090983        4      -0.61208787       0.46956366      -0.26760505
Se       7.24241307       4.72337806       7.42621357        5       0.25595718       0.80875207       2.41318369
W        3.61819510       6.66323574       9.16005358        3       2.00620274       2.14786976       0.99063088
Se       5.67773429       7.76253532      10.87905600        4      -0.58226642      -0.95850494      -0.88954076
Se       5.64526398       7.52786135       7.53911595        5      -0.86285836       0.94318066       0.72874911
27
Lattice="9.339012508211967 0.0 0.0 -4.939086189168029 8.566358647357559 0.0 0.0 0.0 18.358556076543017" Properties=species:S:1:pos:R:3:atom_types:I:1:forces:R:3 cbm=0.5665999999999998 vbm=-0.5820000000000001 efermi=2.1907 bandgap=1.1485999999999998 energy=9.932378626457648 pbc="T T F"
W       -0.00964907       0.85618572       9.14156524        3       0.79875999       4.08366927       4.22610041
Se       1.66356857       1.69674261      10.70902230        4      -0.76815615      -0.15797038       2.61893314
Se       1.62990236       1.77639412       7.48897001        5      -0.76843949       0.47756441      -1.30859895
W       -1.60950503       3.74105525       9.06138048        3      -1.84888208      -1.87594037       7.15211865
Se      -0.10935797       4.83235062      10.97446131        4       0.29215651      -2.42769834      -0.40272680
Se      -0.17379342       4.51566657       7.54369942        5       3.40396524       2.52606669      -2.32833214
W       -3.09974339       6.63064845       9.05850966        3      -4.66235723      -0.76068118       3.19232617
Se      -1.82984689       7.58863688      10.87761949        4       0.89803774       0.53657020       0.43322883
Se      -1.83012332       7.66877962       7.39260447        5       2.08141625      -0.76566167      -1.44697675
W        3.26245794       0.90468975       9.06435962        3      -1.96901122      -2.52251934       3.41144972
Se       4.67521519       1.82933324      10.92587136        4      -0.12691248       1.14248177      -0.56207375
Se       4.72308043       1.83969301       7.57019327        5       0.86917608       1.79088288      -4.07891324
W        1.54863428       3.55807971       9.24397218        3      -0.77193361       3.38579088      -2.03960574
Se       3.11019748       4.53105072      10.86029469        4      -0.37355686       1.43509491      -0.00468764
Se       3.12879706       4.67815325       7.38409196        5      -2.92908942       0.90581070      -0.60373076
W       -0.21614677       6.56968244       9.32995180        3       0.13978856       0.82901236      -4.12722607
Se       1.39144936       7.60110633      10.80503855        4      -0.60349345       0.46447544       1.35457464
Se       1.30879536       7.50550846       7.45465381        5      -0.28830500       0.31838716       1.14642302
W        6.24801790       1.04243925       9.20242665        3      -0.81884339      -4.39470127       0.80284445
Se       7.69589731       1.69576762      10.95025926        4       1.91389294       2.15318937       0.28766016
Se       7.79732832       1.76877068       7.60182917        5      -0.06162574       1.45762883      -3.78695291
W        4.64597661       3.89058778       8.95982712        3      -5.34116240      -6.26082029      11.60469932
Se       6.14437354       4.70133641      10.93526454        4       0.20610914       0.28467768      -1.65575264
Se       6.02442793       4.60268655       7.60682834        5       7.62983476       4.95247948      -9.30170128
W        2.89377521       6.56072726       9.20301407        3      -1.66382231      -2.75848027      -0.72101754
Se       4.33136863       7.59681599      10.72938508        4       2.67400514      -0.92273447       2.40766739
Se       4.31701363       7.71016919       7.74500744        5       2.08844796      -3.89657446      -6.26972942
27
Lattice="9.230692050370832 0.0 0.0 -4.905762058474183 8.79229879282257 0.0 0.0 0.0 18.358554191300534" Properties=species:S:1:pos:R:3:atom_types:I:1:forces:R:3 cbm=0.44510000000000005 vbm=-0.44619999999999993 efermi=2.1557 bandgap=0.8913 energy=8.866540965929744 pbc="T T F"
W       -0.01156052       1.07285564       9.19182345        3      -3.26962381      -3.38972467       0.33318463
Se       1.45899672       1.81746788      10.79533497        4       0.25001073       3.02090866       3.10554243
Se       1.35453852       1.77826513       7.41059988        5       2.57832436       1.91650698       0.21614519
W       -1.73140183       3.94621224       8.97037177        3      -1.36888643      -2.38640514       5.80488194
Se      -0.30824696       4.97900114      11.01220546        4       0.41081138      -1.92709890      -0.71416915
Se      -0.09184908       4.81760710       7.70736017        5      -0.43281899       3.34433390      -5.73464608
W       -3.25668785       6.84145941       9.18391183        3      -2.57700153      -0.53252226      -1.09870823
Se      -1.90603914       7.90234100      10.89939256        4       0.29402750      -1.33310516       2.10674805
Se      -1.74098237       7.77543376       7.42750405        5      -0.91614165       0.07523485       1.18070508
W        3.04263918       0.88995779       9.31579072        3      -1.96855511      -1.16835401      -7.31847160
Se       4.47333275       1.90142841      10.72321557        4       2.44354251      -0.43012448       6.11564243
Se       4.61766570       1.98622062       7.64636837        5      -1.15237255      -0.51202697      -0.91259790
W        1.37556788       3.97963842       9.19146161        3       1.85406414      -3.71617738       2.81815044
Se       2.98523442       4.87223249      10.85475016        4      -2.37162669       1.15498299       2.32899857
Se       3.03327741       4.82479135       7.50408926        5      -1.10317192      -0.28856365       0.32431304
W       -0.35833731       6.75756258       9.36079404        3      -0.58475448       0.88327652      -3.87404440
Se       1.08540108       7.71792008      10.91656257        4       2.66152860       1.28983890       0.80022423
Se       1.01456844       7.83605633       7.46437420        5       1.85106881      -0.43182346       1.23505743
W        6.15721129       0.96947928       9.23180158        3      -0.57675603      -2.31536890      -1.03945638
Se       7.51950451       1.94221791      10.93355074        4       1.55832609       1.13550740      -0.19892162
Se       7.67408630       1.91745289       7.49590440        5      -0.81199115       0.44745423      -0.72309525
W        4.44275516       3.79277136       9.41439575        3      -0.54331858       1.53342855      -7.78658490
Se       5.92073942       4.85314619      10.79166023        4       2.44631004       1.44332013       1.90779248
Se       5.84276499       4.76464878       7.34634688        5       0.63639688       0.95740426       1.17992963
W        2.65323412       6.70043844       9.11002567        3       2.41842231       2.52035421       0.89540493
Se       4.34480275       7.83885138      10.98892843        4      -0.90903461      -0.45914529      -2.30033103
Se       4.36078015       7.88492638       7.48263897        5      -0.81678008      -0.83211183       1.34830630
27
Lattice="9.808152974746173 0.0 0.0 -4.8453550755132815 8.431814100411943 0.0 0.0 0.0 18.35855745277577" Properties=species:S:1:pos:R:3:atom_types:I:1:forces:R:3 cbm=0.5114999999999998 vbm=-0.5049000000000001 efermi=2.0005 bandgap=1.0164 energy=6.562542889776523 pbc="T T F"
W       -0.06155597       0.77302860       9.16335617        3       3.10443789       6.14812755       5.56984326
Se       1.75272674       1.73317615      10.79175771        4      -1.29410178      -1.49691323       2.32502082
Se       1.75675593       1.82874974       7.43701140        5      -0.63341877      -1.05823495       0.54433468
W       -1.59343449       3.63336259       9.08244774        3       1.47137498       2.32858668       3.67253316
Se       0.15666759       4.55712485      10.75345393        4      -1.46697608      -0.86417194       2.09328446
Se       0.05369866       4.64513831       7.37524455        5       0.59736702      -1.13208783       1.42016811
W       -3.05025515       6.45087027       9.34940408        3      -3.69055222      -2.16416798      -4.28842909
Se      -1.65635281       7.46341887      10.83148858        4       2.87598560       0.45898639       3.04049841
Se      -1.41628160       7.14991891       7.54220188        5      -1.98982739       2.32855403      -0.67717484
W        3.37296104       0.86360297       9.20558321        3      -0.94976242      -2.35618645      -3.07094824
Se       4.95298190       1.61800097      10.80899358        4       0.69184529       1.55109023       2.04445356
Se       4.96489194       1.45974937       7.40705926        5       0.70953988       1.80894874       0.40296257
W        1.69183479       3.47401346       9.27094670        3       1.08757689       3.97250325      -3.92177693
Se       3.33158240       4.57683433      10.87943868        4       0.76166849      -0.30421987      -0.67859409
Se       3.52266680       4.62099161       7.70988500        5      -1.93268462       0.06167717      -0.92100309
W        0.02622602       6.40736621       9.25599418        3       2.81407524       0.82030326      -0.54432928
Se       1.70441865       7.39336512      10.94996028        4      -0.49126068       0.11648846       0.37835917
Se       1.82266182       7.27705023       7.58895636        5      -1.97740999       1.20220644      -1.11574693
W        6.61184854       0.82070897       9.24206071        3       0.17684716      -0.75897500      -0.80377750
Se       8.32598413       1.91333917      10.90268106        4      -1.04836809      -1.14918387       0.04628860
Se       8.21150043       1.87069234       7.61456447        5      -0.47619427      -2.26361362      -3.10015083
W        5.11930954       3.47666852       9.11070895        3      -2.13016437      -0.61041177       4.18518748
Se       6.67537889       4.52188611      10.98330898        4      -0.29899847      -0.29724164      -1.09492768
Se       6.51099425       4.49448410       7.59922353        5       1.64619174       2.20267899      -2.76659853
W        3.32430083       6.64360538       9.26370633        3       1.38099530      -4.02013165       0.80015456
Se       5.02206857       7.22380667      10.87843334        4       0.03392005       1.96845741       1.64846691
Se       4.96572465       7.65879041       7.67643626        5       1.02789388      -6.49306829      -5.18809871
27
Lattice="9.712018409659004 0.0 0.0 -5.097644222861819 8.00953071850101 0.0 0.0 0.0 18.35855070363114" Properties=species:S:1:pos:R:3:atom_types:I:1:forces:R:3 cbm=0.4259999999999997 vbm=-0.4264000000000001 efermi=2.4342 bandgap=0.8523999999999998 energy=8.386660864402074 pbc="T T F"
W        0.07582270       0.82014208       9.26042218        3       0.18319650       0.52032700       2.29374901
Se       1.70181853       1.63227271      10.91061648        4      -0.65081152      -0.28555212       2.58098442
Se       1.77099821       1.69996160       7.65412232        5      -2.52642176       0.39216599      -3.89312044
W       -1.77486651       3.38680031       9.27721329        3       2.49834146       1.41300991      -2.96569473
Se      -0.09103075       4.38277557      10.85627094        4       0.14764560      -1.08662147       1.49221582
Se      -0.17409279       4.44421088       7.61234122        5       0.86551226      -2.75881349      -1.19944225
W       -3.39364437       5.89221553       9.23442213        3       1.72327907       4.59004675      -1.10525349
Se      -1.60068826       7.14806109      10.87896113        4      -1.70128302      -2.40976207       0.45087559
Se      -1.71402751       6.95908852       7.47749567        5      -1.06814887      -0.21830209       1.38469769
W        3.22456687       0.86790481       9.21616840        3       3.14568687      -2.73506472       0.53506379
Se       4.96996226       1.53575759      10.92145509        4      -1.42858462       2.19166850       0.45979578
Se       4.79336474       1.44705869       7.39741231        5       0.61714292       2.60084877       0.29097534
W        1.61442396       3.38392458       9.31216976        3      -0.27549936       3.73000709      -1.32075590
Se       3.17869409       4.21234421      11.02084692        4       0.45561979       1.38534149      -0.54261255
Se       3.27184983       4.50528880       7.57496937        5      -1.96046333      -5.87324371      -6.75215939
W       -0.01457385       6.13877260       9.22664475        3      -3.29084827       0.69985505       1.79843884
Se       1.46258821       7.01741696      10.96064309        4       1.68527250       0.16353013      -0.88184982
Se       1.33304640       7.01044664       7.57878911        5       3.30374158       0.72408847      -2.42131866
W        6.49509587       0.89534224       9.18069039        3      -0.31110220      -3.21617957       1.51516601
Se       8.13026956       1.69084201      11.01037542        4       0.01568630      -0.92363384      -0.00281536
Se       8.15016754       1.59541852       7.66177733        5       0.30304796       1.03834644      -3.19427712
W        4.69621542       3.47462318       9.15297715        3       2.96836688      -2.84755640       1.30177910
Se       6.47857378       4.18448335      10.86246041        4      -2.68171742       0.71730719       3.00711932
Se       6.32402158       4.30875154       7.33770573        5       0.28046879      -0.77170633       0.88106640
W        3.26209897       6.05127702       9.02675781        3      -3.23369059       5.82219523       9.33693825
Se       4.76484443       6.98545471      10.91354174        4      -0.15276492      -0.82269876       0.03467930
Se       4.77991360       7.18939058       7.60918967        5       1.08832714      -2.03960369      -3.08424496
27
Lattice="9.65322788016534 0.0 0.0 -5.088583238294597 8.716835816105663 0.0 0.0 0.0 18.358557048637845" Properties=species:S:1:pos:R:3:atom_types:I:1:forces:R:3 cbm=0.5168000000000001 vbm=-0.5129000000000001 efermi=1.8423 bandgap=1.0297000000000003 energy=7.56125278743275 pbc="T T F"
W       -0.01923985       0.83161689       9.24061224        3      -3.79032851       0.27837720      -2.19368347
Se       1.40142087       1.93881896      10.73878838        4       1.65918326       0.57533318       2.00334368
Se       1.37220055       1.98884103       7.55177519        5       0.11892972       0.07723671      -1.36063499
W       -1.74123766       3.80826501       9.04511507        3       0.31824112       0.63231346       2.98784710
Se       0.00642036       4.80574463      10.82809136        4      -3.45176204       0.68733352       1.66999912
Se      -0.09385447       4.69166664       7.43601369        5      -0.47588548       1.73422142      -0.13364723
W       -3.40289604       6.83552789       9.04851397        3      -2.35675260      -1.36208227       5.95489938
Se      -1.78421383       7.88522085      10.79023140        4      -0.10997740      -1.16408958      -0.65999524
Se      -2.03797982       7.71723635       7.46345009        5       3.48494444       0.85913695      -2.23475427
W        2.98030862       0.96299346       9.02786185        3       3.30550407       1.30551465       2.37185912
Se       4.85909416       1.87795729      11.00959714        4      -1.67632789       0.39320343      -2.39456736
Se       4.67198371       2.07998005       7.46158895        5      -0.89257055      -1.69967557      -1.58378386
W        1.38148020       3.91148021       9.23042229        3       3.70133646      -1.22222711      -3.42407049
Se       3.01090549       4.89299147      10.86316443        4       1.34014304      -0.93063933      -0.62101269
Se       3.17177170       5.01504302       7.28387881        5      -0.95636604      -1.13562207       2.26059129
W       -0.04586924       6.74734662       9.20556330        3      -4.81782309      -1.53226281      -2.10347323
Se       1.40756129       7.65002382      10.75990095        4       0.60738250       2.42365605       2.17597834
Se       1.23998318       7.85801902       7.51082427        5       1.72654128      -1.00865328      -1.27441022
W        6.21653396       1.00268464       9.03374453        3       2.22688207       0.21372578       2.20655493
Se       7.79812171       1.89077195      10.86042388        4       1.06587396       0.03741238      -1.69038103
Se       7.97552101       2.00068457       7.28532873        5      -0.44377960      -1.28055181       1.74106904
W        4.79267898       3.85337840       9.03571765        3      -6.26776407      -1.13126328       7.24390627
Se       6.24615296       4.86625299      10.87009448        4       0.90956425       0.07858423      -1.30824697
Se       6.15008982       4.82513217       7.66765061        5       4.87987795       2.48447241      -6.12821256