27
Lattice="9.694036968119152 0.0 0.0 -4.9853523915946365 8.411884250641776 0.0 0.0 0.0 18.358547822150115" Properties=species:S:1:pos:R:3:atom_types:I:1:forces:R:3 cbm=0.5377999999999998 vbm=-0.5385000000000002 efermi=2.0266 bandgap=1.0763 energy=4.352924233171507 pbc="T T F"
W       -0.00322133       0.86160213       9.19214953        3      -1.10630790       1.59249785      -1.40435994
Se       1.52525105       1.83827248      10.84405899        4      -0.38815199      -0.49632678       2.12139485
Se       1.68846858       1.97311944       7.46005100        5      -1.32901711      -1.87778668       0.09120706
W       -1.65775400       3.61815777       9.22942989        3      -0.74700883       3.50736626      -2.09963098
Se      -0.15164576       4.73891543      10.90777014        4       0.29517910      -2.05061701       1.13528448
Se       0.03288993       4.73734984       7.41222546        5      -1.25679585      -0.89706046       1.47245175
W       -3.27283678       6.46332853       9.17819496        3      -1.51842745      -0.17042892      -0.25357222
Se      -1.79516018       7.45230158      10.85014491        4       0.07658365      -0.07389222       1.59605574
Se      -1.59585175       7.57203651       7.56176277        5      -1.60801060      -1.39144761      -0.44002811
W        3.13755456       0.92128250       9.27423961        3       1.19815053       0.42449453      -1.27656660
Se       4.76622159       1.77999192      11.01093893        4       0.55726321       0.53216847      -1.92363434
Se       4.71356940       1.76972885       7.48534662        5       0.19671330       0.64306607       0.22529291
W        1.45210470       3.59782646       9.23342674        3       1.50192971       3.67274142      -1.49850294
Se       3.10900949       4.55466766      10.92409975        4       0.16984553      -0.33839343      -0.13526471
Se       3.15354099       4.73887665       7.34761277        5      -0.32460692      -0.46842723       2.20515471
W       -0.17395271       6.47065529       9.28614388        3       1.19562442       0.93366397      -3.49546386
Se       1.48452253       7.40737748      10.76493723        4      -0.54305221       1.27570914       2.75310461
Se       1.51989800       7.48338745       7.54192780        5       0.17727165      -2.37831876      -0.62128831
W        6.43635778       0.83984871       9.05064955        3      -0.98879408       2.49618456       3.37832542
Se       7.98389930       1.89558653      10.78074724        4       0.14620758      -2.40192843       1.53621768
Se       7.82268553       1.99466734       7.38414087        5       2.31918956      -1.66568970       0.03373750
W        4.72849628       3.72708869       9.07144229        3      -0.01361091      -0.99750909       2.54466271
Se       6.35725153       4.63675579      10.96005881        4      -0.12496898      -0.39946767      -1.62125435
Se       6.39510093       4.43881034       7.43936101        5       0.42947502       2.03652068       0.50090772
W        3.13449609       6.45333883       9.38673794        3       0.97769309       0.07547962      -4.21361256
Se       4.73256971       7.55058458      10.98687639        4       0.38044948      -1.19784842      -0.57826707
Se       4.70410221       7.41478857       7.57751364        5       0.32717725      -0.38475016      -0.03235116
27
Lattice="9.718565390080753 0.0 0.0 -4.600292645960115 8.850396225219448 0.0 0.0 0.0 18.358554674604953" Properties=species:S:1:pos:R:3:atom_types:I:1:forces:R:3 cbm=0.4670000000000003 vbm=-0.46299999999999986 efermi=1.6844 bandgap=0.9300000000000002 energy=7.6678005936410045 pbc="T T F"
W        0.05650374       1.08030795       9.20465737        3      -2.17787453      -1.55079147      -0.56954846
Se       1.61522460       1.81864486      10.86118976        4      -0.18277124       2.32996068       0.88071185
Se       1.61806533       1.89016767       7.43488620        5      -1.14762218       0.79460020      -2.00095898
W       -1.62199163       4.02339083       9.25484793        3       1.98139314       1.06129893      -2.02439998
Se       0.30257490       5.02860148      10.72420949        4      -0.86199807      -0.78750010       0.17125424
Se       0.04844219       5.04400250       7.51907133        5      -0.41225711       0.33692147       0.06670830
W       -3.10472983       6.85438172       9.10280972        3       1.22913104      -0.09772352       1.07124036
Se      -1.28705002       7.90958856      10.92530702        4      -2.90221883       1.08346364      -0.12228681
Se      -1.37982345       7.80818408       7.36703798        5      -0.75128123       1.04131812       1.82673666
W        3.07295498       1.13142275       9.10518591        3       3.53093582      -3.48981129       1.64837897
Se       4.82077774       2.02982540      11.03150373        4      -0.13785767      -0.12402127      -2.18653632
Se       4.89919004       1.96553903       7.59974806        5      -0.99604202       0.92510709      -0.82208787
W        1.66834239       3.88192642       8.91629782        3       0.76663251       0.30446335       4.09974586
Se       3.65296188       5.14764128      10.69518500        4      -5.76060471       0.97003583       5.57829499
Se       3.25368142       5.20614412       7.60680471        5       0.69317378      -4.23634523      -4.04010604
W        0.16592410       7.10474071       9.30532713        3       1.39203073      -2.19363334      -4.26172279
Se       1.81974597       7.91519228      10.90250921        4       0.79746056       0.43182038      -0.17129872
Se       1.86690920       7.92496041       7.38741684        5      -1.20357890       0.39218271       0.75523430
W        6.43908701       0.92543290       9.13899971        3       0.78724813       1.23199062       1.84710596
Se       8.05881033       2.17761465      10.81730558        4       0.22332551      -1.94168862       0.26644445
Se       8.14144243       2.15293241       7.59341836        5      -0.34427663      -1.21948066      -0.13569331
W        4.78514462       3.99910316       9.27096520        3       6.39491077      -2.78060847      -5.23378439
Se       6.61630505       4.94467584      10.89427175        4      -1.02607816       0.80059344      -0.10859131
Se       6.70791224       4.86187658       7.32704900        5      -1.69657610       0.54311726       1.98225395
W        3.35375835       6.90544111       9.09105900        3      -0.37760609       4.24197826       3.96245692
Se       4.99647677       7.91827404      10.89532427        4       0.62649017       0.02321475      -1.45879071
Se       4.94563506       7.76120064       7.54297414        5       1.55591105       1.90953775      -1.02076189
27
Lattice="10.407904959846203 0.0 0.0 -4.735305335391146 7.8290446768004704 0.0 0.0 0.0 18.358555598197515" Properties=species:S:1:pos:R:3:atom_types:I:1:forces:R:3 cbm=0.41339999999999977 vbm=-0.4095000000000002 efermi=2.1886 bandgap=0.8229 energy=11.605640362482518 pbc="T T F"
W       -0.05504533       0.72035400       9.17567250        3       1.66865315       3.25429464      -3.64526558
Se       1.68944132       1.65258276      11.05612177        4       0.65197340      -0.19969913      -2.20108876
Se       1.89940311       1.54839339       7.42282519        5      -0.71193667       0.85499130       1.24941010
W       -1.45679238       3.36591959       9.15335587        3       1.73073141       4.70110426      -3.92888269
Se       0.37575659       4.36731096      10.87055611        4      -0.86314041      -2.28703971       0.79959200
Se       0.28082505       4.35355171       7.45388862        5       0.37047154      -1.81319311      -0.08546810
W       -3.03419780       6.19579980       9.17158844        3      -1.15132560      -0.65927456      -0.50985721
Se      -1.27989130       7.10869276      10.75325694        4      -0.82008421      -4.50322471       5.11013850
Se      -1.35198477       6.94923429       7.58626884        5       0.53013165      -1.48074202      -3.03188547
W        3.59956248       0.79686147       9.18651337        3      -0.63757393       6.35652472      -1.71748406
Se       5.32619020       1.71255519      10.85246717        4       0.32908089       0.96362684      -0.83331896
Se       5.46237139       1.67500035       7.63900154        5      -7.99531733       1.03246504     -10.42078987
W        2.02269619       3.35881619       9.18007192        3      -0.86780877       1.11570013      -0.39297615
Se       3.69986346       4.30600111      10.87151884        4       0.70332913      -0.69418808      -1.06814681
Se       3.82547959       4.26020009       7.43620559        5      -1.87342121      -0.50771471      -1.87521301
W        0.22664982       5.98206307       9.19837006        3       2.52387148       2.32587211      -1.70011188
Se       2.08831907       6.82384609      10.72245266        4       0.31838459       0.82603991      -0.32204970
Se       2.19882916       6.93041055       7.44370865        5      -0.70741024      -1.67639937      -0.51589056
W        6.82873677       0.91385152       8.97995185        3       9.50507014      -4.00508350       8.96213954
Se       8.75166694       1.73094492      10.63891153        4      -1.88371050      -2.96041189       3.83646053
Se       8.73879445       1.77232779       7.30243175        5       0.28031349      -1.62495700       0.71768077
W        5.57122975       3.55715235       8.85649536        3      -1.42196866       0.46175753       8.52146557
Se       7.38413172       4.36996289      10.68064827        4      -1.59118427      -0.57673366       1.76600926
Se       7.24055675       4.24005142       7.41354342        5       2.33789948       1.95134954      -1.17012088
W        3.91214830       5.99574009       9.07373852        3      -1.03583653       1.87772318       0.84514423
Se       5.37654781       7.02679191      10.86532718        4       1.28936890      -3.22878004       1.37530082
Se       5.69175537       6.82076431       7.40052105        5      -0.67856066       0.49599203       0.23520812
27
Lattice="9.839922657626888 0.0 0.0 -4.656093962826521 8.253205609316579 0.0 0.0 0.0 18.358550340710295" Properties=species:S:1:pos:R:3:atom_types:I:1:forces:R:3 cbm=0.5371999999999999 vbm=-0.5370000000000001 efermi=2.104 bandgap=1.0742 energy=6.190573204483371 pbc="T T F"
W       -0.12568927       1.01060138       9.14388982        3       4.10512512      -0.93001558       0.63491696
Se       1.74654790       1.85482050      10.89906241        4      -0.68876666      -0.66198836      -1.14432988
Se       1.71830240       1.99303501       7.50147389        5      -0.80741252      -2.28518286      -0.93060590
W       -1.59389527       3.79065801       9.13013656        3       0.18083340      -0.56118749       2.41870359
Se       0.25902908       4.71550545      10.96623858        4      -2.27051858      -0.09519175      -0.33588429
Se       0.23868110       4.51314941       7.59000958        5      -3.61499033       3.03799184      -3.26749417
W       -3.18416060       6.62689566       9.16114708        3       1.55628000      -2.59621075       0.14075607
Se      -1.43433699       7.34666829      10.76318292        4      -1.15755024       0.64920998       3.17818278
Se      -1.39453155       7.23574580       7.52526781        5      -0.79467348       0.25641638      -2.83565271
W        3.28044030       0.78182909       9.05828545        3       0.46892499       5.40778354       1.69277421
Se       5.01392472       1.96327711      10.84339502        4      -0.56341021      -1.28351758      -0.98680456
Se       4.94617685       2.04295687       7.39706346        5       0.00645655      -1.42237489       0.80637946
W        1.56060583       3.69484766       9.18235999        3       5.84198270      -0.22058368       3.38768115
Se       3.31656955       4.51254819      10.88434189        4      -0.49288973       1.13957900      -0.66787567
Se       3.42968339       4.71648944       7.44159600        5      -1.40541564      -0.64342808       0.25264688
W        0.15111760       6.59907427       9.23075076        3       2.25122296      -4.46452344      -0.23966615
Se       1.98554191       7.33635999      10.83493957        4      -2.42494469       1.60339264       2.66081384
Se       1.78794839       7.38845156       7.61075017        5      -1.05762277      -0.63480923      -4.99179550
W        6.57335566       0.88052941       9.09671625        3      -0.66713082       3.87878243       3.45148102
Se       8.30669149       1.87909165      10.88008120        4      -1.63406539       0.92032586      -0.13506622
Se       8.19671166       1.81732843       7.56423784        5      -0.80634166       1.59900428      -2.67535728
W        4.95577373       3.83323732       9.17701592        3      -0.36127496      -1.46003667      -1.23508263
Se       6.44197400       4.72595840      10.80776761        4       2.38244770       0.25154568       0.74541783
Se       6.62941272       4.74732579       7.51451770        5       0.15844963      -0.56007960      -0.50368785
W        3.28349954       6.52099940       9.14103821        3       5.92903614      -2.19926842       0.47896798
Se       5.18045655       7.47137947      10.86356489        4      -1.83687529      -0.02506543       0.23217113
Se       5.23121087       7.36462714       7.39231373        5      -2.29687650       1.29943220      -0.13159009
27
Lattice="10.34576950121854 0.0 0.0 -4.895142222579557 8.230266553609372 0.0 0.0 0.0 18.358557634142798" Properties=species:S:1:pos:R:3:atom_types:I:1:forces:R:3 cbm=0.5668000000000002 vbm=-0.5670999999999999 efermi=1.7702 bandgap=1.1339000000000001 energy=6.840309213133878 pbc="T T F"
W       -0.08704103       0.91028701       9.07788200        3       0.90910763       4.87511961       2.29856931
Se       1.85434469       1.78465869      10.81306411        4      -1.99214215       0.90024246       0.21707747
Se       1.85265005       1.62900866       7.48139010        5      -1.16301178       1.95387951       0.37416416
W       -1.72589886       3.67435591       9.11410254        3       4.85283020      -1.88659168       3.66810392
Se       0.19392731       4.45085660      10.74126551        4      -1.12402717       0.93368351       0.60484096
Se       0.20269949       4.54710329       7.58486538        5      -1.60344020      -1.37881732      -3.55699473
W       -3.11680790       6.37943115       9.26435932        3      -2.00734868      -0.31762226      -2.30065216
Se      -1.49581722       7.05224965      10.87560119        4       1.13288667       1.69149946       0.56078845
Se      -1.52096261       7.30866541       7.42356449        5      -0.07274294      -0.45366344       0.30987861
W        3.34452450       0.81927942       9.24658012        3       3.64111094      -0.42994707      -1.04614614
Se       5.20274885       1.78613193      10.91017571        4      -1.07214025       0.95160050      -1.02420383
Se       5.28811076       1.82557724       7.42226299        5      -1.22279918       0.23767021       1.23719350
W        1.84692160       3.79428613       9.10722881        3       1.12153834      -4.57255039       0.53383995
Se       3.57253077       4.70020103      10.60369057        4       0.35872314      -3.65704252       4.90656780
Se       3.56426450       4.59850625       7.54150936        5       0.62327654       0.60155921      -1.66910901
W        0.12423717       6.34874043       9.02503581        3       1.09964565       2.83112191       3.40546959
Se       1.83851876       7.29565664      10.95933467        4      -0.07848781       0.18181350      -1.72523902
Se       2.01014370       7.35710740       7.45455524        5      -0.90661983       0.16546771       0.97826696
W        6.80982654       1.00693305       9.22389184        3       1.87399173      -1.47072089      -0.67029868
Se       8.67442389       1.85282696      10.89074532        4      -0.34674309      -0.56534908      -1.06201010
Se       8.59233435       1.96537962       7.39921779        5      -0.02926970      -1.86251510       0.43629512
W        5.32439648       3.76311640       9.09645059        3      -0.02202356      -1.69803906       0.99720647
Se       7.08071086       4.43764091      10.85910796        4      -1.03741210       1.01362220       0.53366640
Se       7.19362355       4.53580158       7.62267917        5      -3.38752277       2.34858421      -3.97239938
W        3.58683173       6.44450604       9.23639160        3      -1.97052817       2.77775789      -5.27392497
Se       5.28732655       7.26676504      10.56616750        4       2.20252832       0.57779939       4.59059311
Se       5.37454242       7.41098921       7.64343795        5       0.22062019      -3.74856274      -3.35154379
27
Lattice="10.094339417504687 0.0 0.0 -4.587281699230247 8.58857690093493 0.0 0.0 0.0 18.358554909936938" Properties=species:S:1:pos:R:3:atom_types:I:1:forces:R:3 cbm=0.38850000000000007 vbm=-0.3871 efermi=1.5974 bandgap=0.7756000000000001 energy=6.247161590203177 pbc="T T F"
W        0.07213516       0.83207337       9.07148303        3       1.22352012       3.95278366       0.01904236
Se       1.76569075       1.83631983      10.79751817        4       0.48164218      -1.02453987       0.17782495
Se       1.84611538       1.75146580       7.35636997        5       0.10342725       0.97150316       1.66922882
W       -1.45260472       3.66190231       9.20318186        3      -0.74663499       1.54399450      -0.18182327
Se       0.34320148       4.69557882      10.80824845        4      -1.25937955       0.01416575       0.92691586
Se       0.12636902       4.68034444       7.50170928        5       1.18823635      -2.14031483      -0.90577136
W       -2.91193125       6.64262447       9.09428413        3      -2.25563600      -0.52018302       0.72608930
Se      -1.26294318       7.39477086      10.67959105        4       1.58507996       1.55236267       0.48641492
Se      -1.20239632       7.48567644       7.54995619        5       0.19306311       1.51044726      -1.28139796
W        3.55067783       1.00283123       9.13819047        3      -0.84515452      -2.46465486      -0.53817946
Se       5.16626071       1.67726837      10.84906087        4       0.61096764       1.73302509      -0.29801811
Se       5.29329797       1.85922490       7.43926873        5      -0.91538832       0.67450243      -0.33383666
W        2.04550886       3.80134955       9.38806978        3      -2.24118846      -2.08027288      -6.24945396
Se       3.62769663       4.49594913      10.90067424        4       2.27582045       1.73118289       1.53537745
Se       3.66300360       4.62221114       7.52345350        5      -1.03425324       0.07255756      -0.92565987
W        0.46185338       6.44324814       9.00588598        3      -0.76357059       2.44747269       4.06945621
Se       2.08358875       7.49703156      11.00218292        4      -0.04636856       0.33593365      -2.08366957
Se       2.04744193       7.62091636       7.56724476        5       0.86920333       0.01963243      -0.83124434
W        6.88647746       1.08422997       9.09108927        3       0.02659112      -3.11592995       2.76494120
Se       8.59520182       1.84161532      10.94353985        4      -0.12762005      -0.05961051      -1.30925612
Se       8.63718014       1.78593192       7.50514136        5      -0.84708233       1.24908640      -1.35063571
W        5.32114825       3.79825867       9.08753606        3       0.10135494      -1.07921952       1.85681214
Se       6.95048668       4.79020820      10.87837484        4       0.37412893      -0.39940365      -1.31229851
Se       6.91176479       4.91135340       7.38124343        5       0.90695047      -1.90206072       0.69586599
W        3.54482614       6.40995499       9.17664586        3       2.53844038       2.31592811       0.84055044
Se       5.43504167       7.75650757      10.62823912        4      -0.37421892      -3.99846317       2.21565663
Se       5.51706121       7.60737481       7.46456413        5      -1.02193123      -1.33992501      -0.38293162
27
Lattice="9.62591545691059 0.0 0.0 -4.65662323551961 7.839923103035399 0.0 0.0 0.0 18.358555585335335" Properties=species:S:1:pos:R:3:atom_types:I:1:forces:R:3 cbm=0.5280999999999998 vbm=-0.5286 efermi=2.62 bandgap=1.0566999999999998 energy=13.407584460670478 pbc="T T F"
W        0.03359059       0.97647500       9.15069364        3       2.50494482      -3.66656949      -2.72874598
Se       1.59983292       1.65502119      10.79499059        4       0.10536252       0.29164589       4.40872484
Se       1.58839926       1.83822642       7.38372883        5       0.23050660      -1.72077558      -0.96921719
W       -1.60193426       3.46741069       9.19174624        3      -1.96306837       7.07137959      -3.75071835
Se       0.09575764       4.38410779      10.73357244        4       0.13948877      -2.57884732       4.26626696
Se      -0.09325491       4.27633604       7.58239136        5       2.44739068       0.35603094      -2.33534406
W       -3.26179440       6.01414010       9.41480373        3      -0.80420919       6.39919989     -12.33195436
Se      -1.71502818       6.93353632      10.79535445        4       4.06376816       0.50067349       3.68996010
Se      -1.54992833       7.01092675       7.59639129        5      -0.14736895      -3.60701502      -2.40400640
W        3.05766242       0.78907287       9.15867063        3       3.68706889       3.72333173      -0.23059299
Se       4.87514307       1.68985449      10.80580146        4      -0.79464751      -1.95861831       1.83192951
Se       5.01377550       1.81911128       7.38731737        5      -1.72918849      -2.32495269       0.37060961
W        1.77490041       3.36928796       9.21173445        3      -3.16854218       2.49562534      -0.67959630
Se       3.36108283       4.22637273      10.86041986        4      -1.13125968       0.35911781       3.42888951
Se       3.12223595       4.30799568       7.53821611        5       2.25899155      -0.69414952      -3.30179345
W        0.19727544       6.02565944       9.19875487        3      -2.09043620       4.19827182      -1.57640428
Se       1.76118156       6.82443330      10.97482387        4       0.63777551       0.11513246      -0.06717367
Se       1.79610438       6.95226450       7.54855434        5       0.15330948      -2.10094867      -2.00521287
W        6.48314551       0.71678609       9.21668699        3      -1.29843924       2.50055106       1.17228240
Se       8.19641888       1.88414974      10.56909923        4      -3.10970865      -4.89870640      10.89468146
Se       7.98488554       1.68720255       7.64633343        5      -0.04283149       0.01934832      -4.54091657
W        4.76970753       3.39883278       9.20753082        3       3.76534458       1.44700580      -2.52202492
Se       6.51231877       4.58897711      10.90709593        4      -0.51964000      -9.43742493       7.44142844
Se       6.45349672       4.23164388       7.44809059        5      -0.78647835       1.42841287       0.46150402
W        3.48557383       5.94154337       9.17779636        3      -4.88613473       3.08921593       1.91595188
Se       4.75641029       7.12313605      10.92652969        4       1.04623356      -0.73890008       1.41138805
Se       4.89139450       6.96353548       7.55349147        5       1.43176765      -0.26803468      -1.84991541
27
Lattice="10.350685028306934 0.0 0.0 -4.543681609616008 8.102402382623357 0.0 0.0 0.0 18.358554604566763" Properties=species:S:1:pos:R:3:atom_types:I:1:forces:R:3 cbm=0.5340999999999998 vbm=-0.5315000000000001 efermi=1.9252 bandgap=1.0655999999999999 energy=9.146068274014397 pbc="T T F"
W        0.05452844       0.86386921       9.22044819        3       2.25638085       0.99130656      -1.70588144
Se       1.93417455       1.93480801      10.91598459        4      -0.30023029      -2.30516471       0.27498514
Se       2.05059698       1.84765007       7.71435106        5      -3.77169264      -1.36243939      -5.48453302
W       -1.54984844       3.49991750       9.30795391        3       1.44352093       0.54895007      -2.08819934
Se       0.32418449       4.45254693      10.83986875        4      -0.13955228      -0.64338231       0.82719048
Se       0.38269691       4.33170786       7.77261507        5      -2.03559817       0.07118459      -3.13050682
W       -2.85322326       6.14991437       9.28758273        3      -0.73231703       3.00866198      -1.25029456
Se      -1.07567424       7.16119803      10.81950585        4      -2.01381938       0.63981105       2.63959144
Se      -1.11914091       7.27214081       7.67251049        5      -2.15763429      -3.61985614      -5.87257600
W        3.47064783       0.83026571       9.11712144        3       4.79674185       3.15465025       7.13866021
Se       5.50871013       1.71669009      10.90704987        4      -1.55394364       0.84481899      -0.99085842
Se       5.55109101       1.70904301       7.40666556        5      -2.09814514       1.15916438       0.73425307
W        2.09869248       3.56663905       9.20126319        3       0.81170575       3.07664503       2.64754617
Se       3.73890550       4.59171810      10.78905103        4       1.18814302      -2.45197804       2.44159875
Se       3.95256330       4.28199766       7.57794766        5      -1.74979408       2.51843591      -1.01822859
W        0.29094430       6.24200752       9.18729080        3       6.23434950       0.67507013       0.53948943
Se       2.37641274       7.16951377      10.87981205        4      -1.81123342       0.18447999       0.05904101
Se       2.33373480       7.22535365       7.37921865        5      -0.07913907      -1.81075597       1.39932367
W        6.97816790       0.84369986       9.12625074        3       2.62536552       0.55727633       1.33398962
Se       8.95371310       1.70939804      10.95435044        4      -1.92261849      -0.07062640       0.23737787
Se       8.78238028       1.84532530       7.51349705        5      -0.17467895      -1.25596487       0.13330141
W        5.52380247       3.66159623       9.19997039        3       2.13794581      -1.92364308       1.35345287
Se       7.39195103       4.42395110      10.97933388        4      -1.91972266       0.01076161       1.17025972
Se       7.18327915       4.60411615       7.38229384        5       0.86070352      -1.91315786       1.43412123
W        3.97083537       6.33385432       9.31010065        3       1.49905496       0.93835829      -5.00791529
Se       5.84672003       7.26339656      10.90658927        4      -0.14602298      -1.93493742       0.10507276
Se       5.95326895       7.10540059       7.40710754        5      -1.24776896       0.91233153       2.07973886
27
Lattice="9.630571157989683 0.0 0.0 -4.98468732566388 8.204890295474366 0.0 0.0 0.0 18.358555556481416" Properties=species:S:1:pos:R:3:atom_types:I:1:forces:R:3 cbm=0.5268000000000002 vbm=-0.5318 efermi=2.1795 bandgap=1.0586000000000002 energy=6.994145098287845 pbc="T T F"
W       -0.23176355       1.09316517       9.03278235        3       1.00376716      -2.53936341       1.37065844
Se       1.49464346       1.92741821      10.61605884        4      -1.81514278      -0.96077163       4.07241452
Se       1.56501982       1.95972589       7.54753640        5      -1.57607647      -0.22990213      -2.45980113
W       -1.74380559       3.70250390       9.05405724        3      -0.70184740      -0.24470860       2.09761266
Se      -0.28110578       4.55729317      10.75477855        4       0.44463090       1.18140828       1.36097798
Se      -0.15873396       4.70031389       7.35874350        5      -0.05115724      -1.90586133      -0.94478425
W       -3.37018082       6.42782167       8.93184433        3      -1.83806725      -1.26314647       5.25032841
Se      -1.89142588       7.38633123      11.03199839        4      -0.59692531      -1.37504911      -1.71615145
Se      -1.86330846       7.41057523       7.43674631        5      -0.53561118      -0.53970875      -4.63366911
W        2.94140468       0.79431988       9.13990993        3       4.05478987       2.38772668       1.50326308
Se       4.68644587       1.85667685      10.82508749        4      -1.66569613      -0.32679930       0.40110135
Se       4.56565732       1.80778726       7.48591038        5       0.13431032       0.23695390      -0.25024084
W        1.42993565       3.77593315       9.18707854        3      -1.51498577       1.01710733      -4.44576647
Se       2.95718437       4.68978961      10.67945592        4      -0.13544931      -1.20055528       6.97454259
Se       2.91038364       4.81578059       7.32655524        5       0.41800121      -2.70566544      -0.27151852
W       -0.41027967       6.39168970       8.97826850        3       1.50671633       1.15409056       5.25001268
Se       1.17799606       7.37382016      10.86348555        4       0.67270395      -1.31654931      -0.81028265
Se       1.22063734       7.22729680       7.38014455        5       1.31058950       1.69310408       0.52504138
W        6.19754797       0.91380156       9.16881609        3       1.98910594       1.19935020      -1.86198648
Se       7.82968421       1.94056972      10.85786129        4       0.02274938      -0.74169821      -0.70133909
Se       7.95461101       2.04698560       7.38659993        5      -1.69860882      -2.45422955      -1.69881836
W        4.36061765       3.66299352       9.16555903        3       4.53486316      -0.17079864      -3.57484949
Se       6.13827662       4.46999686      10.76247530        4       0.18542796       1.41976034      -0.76985642
Se       6.40815701       4.52494023       7.40187594        5      -3.15094426       0.41139759      -1.24959213